<?xml version="1.0"?><VTKFile type="PolyData" version="0.1" byte_order="LittleEndian">
<PolyData>
<Piece NumberOfLines="2530" NumberOfPoints="44332">
<PointData Scalars=" PointData">
<DataArray type="Float32" Name="time" NumberOfComponents="1" format="ascii" >
0 0.0555738 0.111239 0.166995 0.222842 0.278782 0.334814 0.390938 0.447156 0.503466 0.559864 0.616362 0.672954 0.672959 0.729645 0.786425 0.843301 0.90027 0.957337 1.0145 1.07176 1.12911 1.12912 1.18657 1.24412 1.30177 1.35951 1.41735 1.47529 1.4753 1.53334 1.59148 1.59148 1.64972 1.70807 1.70807 1.76651 1.82505 1.88369 1.94243 2.00127 2.06022 2.11927 2.17842 2.17843 2.23768 2.29704 2.29704 2.35651 2.41607 2.47574 2.53552 2.53552 2.59541 2.65539 2.71549 2.77569 2.836 2.89641 2.95693 3.01756 3.01757 3.0783 3.13915 3.13915 3.20011 3.26117 3.32235 3.38364 3.38364 3.44504 3.50655 3.56816 3.6299 3.6299 3.69174 3.7537 3.81577 3.87795 3.94025 4.00266 4.06519 4.12783 4.19058 4.25346 4.31645 4.37955 4.44278 4.50612 4.50612 4.56958 4.63316 4.69686 4.76068 4.76068 4.82462 4.88868 4.88868 4.95286 5.01716 5.01717 5.08159 5.14614 5.2108 5.2756 5.2756 5.34051 5.40555 5.47071 5.536 5.60142 5.66696 5.73263 5.79842 5.79842 5.86435 5.93039 5.99657 6.06288 6.06288 6.12932 6.19589 6.19589 6.26259 6.32942 6.39638 6.46348 6.46348 6.5307 6.59806 6.66556 6.73319 6.73319 6.80096 6.86885 6.93689 7.00506 7.07336 7.14181 7.14181 7.21039 7.27911 7.34798 7.41698 7.48612 7.5554 7.55541 7.62483 7.6944 7.6944 7.76411 7.83396 7.90396 7.9741 8.04438 8.11481 8.11482 8.1854 8.25612 8.327 8.39801 8.46918 8.5405 8.61197 8.68359 8.75536 8.82728 8.82728 8.89936 8.97158 9.04397 9.1165 9.1165 9.1892 9.26204 9.26205 9.33505 9.4082 9.48152 9.555 9.55501 9.62864 9.70244 9.77639 9.85051 9.92479 9.99923 10.0738 10.1486 10.1486 10.2235 10.2986 10.3739 10.4493 10.5249 10.6007 10.6767 10.7528 10.829 10.9055 10.9821 11.0589 11.1359 11.213 11.2904 11.3679 11.4455 11.5234 11.5234 11.6014 11.6796 11.6796 11.758 11.8366 11.8366 11.9154 11.9943 12.0734 12.1527 12.1527 12.2322 12.3119 12.3119 12.3918 12.4718 12.4718 12.5521 12.6325 12.7131 12.7939 12.7939 12.875 12.9562 13.0375 13.1191 13.1191 13.2009 13.2829 13.2829 13.3651 13.4475 13.5301 13.6129 13.6129 13.6958 13.779 13.779 13.8624 13.946 13.946 14.0298 14.1139 14.1139 14.1981 14.2825 14.2825 14.3672 14.452 14.452 14.5371 14.6224 14.7078 14.7936 14.8795 14.9656 14.9656 15.052 15.1386 15.2254 15.3124 15.3124 15.3996 15.4871 15.4871 15.5748 15.6627 15.7509 15.8393 15.9279 16.0167 16.1058 16.1951 16.2847 16.3744 16.4645 16.5547 16.6452 16.736 16.827 16.9182 16.9182 17.0097 17.1014 17.1934 17.2856 17.378 17.4708 17.5637 17.657 17.657 17.7505 17.8442 17.9382 18.0325 18.0325 18.127 18.2218 18.3169 18.4122 18.4122 18.5078 18.6037 18.6037 18.6998 18.7962 18.7962 18.8929 18.9898 18.9899 19.0871 19.1846 19.2824 19.3805 19.4788 19.5775 19.6764 19.7756 19.7756 19.8751 19.9749 20.075 20.1754 20.1754 20.2761 20.3771 20.4784 20.58 20.58 20.6819 20.7841 20.8866 20.9894 20.9895 21.0926 21.196 21.196 21.2998 21.4039 21.5083 21.613 21.7181 21.8234 21.8234 21.9291 22.0352 22.1415 22.2482 22.2482 22.3553 22.4626 22.4626 22.5704 22.6784 22.6784 22.7868 22.8956 23.0047 23.1141 23.2239 23.3341 23.4446 23.5555 23.5555 23.6667 23.7783 23.8903 24.0026 24.0026 24.1153 24.2284 24.3419 24.4557 24.4557 24.57 24.6846 24.7996 24.915 24.915 25.0307 25.1469 25.1469 25.2635 25.3805 25.3805 25.4979 25.6157 25.7339 25.8525 25.8525 25.9715 26.091 26.091 26.2109 26.3312 26.4519 26.573 26.573 26.6946 26.8166 26.9391 27.062 27.1854 27.3092 27.4334 27.5581 27.6833 27.8089 27.8089 27.935 28.0616 28.1886 28.3161 28.3161 28.4441 28.5726 28.5726 28.7016 28.831 28.8311 28.961 29.0915 29.0915 29.2224 29.3539 29.4858 29.6183 29.6183 29.7514 29.8849 29.8849 30.0189 30.1535 30.1535 30.2887 30.4243 30.5605 30.6973 30.6973 30.8346 30.9725 31.1109 31.2499 31.3894 31.5296 31.6703 31.8116 31.8116 31.9535 32.096 32.096 32.2391 32.3828 32.3828 32.5271 32.672 32.672 32.8175 32.9637 32.9637 33.1105 33.2579 33.406 33.5547 33.5547 33.7041 33.8542 33.8542 34.0049 34.1562 34.1562 34.3083 34.461 34.461 34.6145 34.7686 34.7686 34.9234 35.0789 35.2352 35.3921 35.3921 35.5498 35.7083 35.7083 35.8675 36.0274 36.188 36.3495 36.3495 36.5117 36.6747 36.6747 36.8385 37.003 37.1684 37.3346 37.3346 37.5016 37.6694 37.6694 37.8381 38.0076 38.1779 38.3491 38.3491 38.5212 38.6941 38.8679 39.0427 39.0427 39.2183 39.3948 39.3948 39.5723 39.7507 39.7507 39.93 40.1103 40.2916 40.4738 40.657 40.8412 41.0264 41.2126 41.3998 41.5881 41.5881 41.7774 41.9678 41.9678 42.1593 42.3518 42.3518 42.5454 42.7402 42.936 43.133 43.3312 43.5305 43.5305 43.731 43.9327 43.9327 44.1356 44.3397 44.545 44.7516 44.9595 45.1686 45.379 45.5907 45.8038 46.0182 46.0182 46.234 46.4511 46.6697 46.8896 47.111 47.3338 47.5581 47.7839 48.0113 48.2401 48.4705 48.7025 48.7025 48.936 49.1712 49.408 49.6465 49.8867 50.1285 50.3721 50.6175 50.6175 50.8647 51.1136 51.1136 51.3644 51.6171 51.6171 51.8717 52.1281 52.1281 52.3866 52.647 52.647 52.9094 53.1739 53.1739 53.4404 53.7091 53.7091 53.9799 54.2528 54.2528 54.528 54.8054 55.0851 55.3671 55.3671 55.6515 55.9383 55.9383 56.2275 56.5192 56.5193 56.8135 57.1103 57.4097 57.7118 57.7118 58.0165 58.3241 58.6344 58.9476 58.9477 59.2638 59.5829 59.905 60 2.29705 3.34281 4.57829 6.08793 8.02914 10.7521 15.3509 37.5905 49.449 2.41607 3.4026 4.56809 5.99221 7.82346 10.3921 14.7305 35.7103 46.8971 2.53553 3.21199 4.01117 4.98769 6.24339 8.00474 10.9795 25.3654 33.0362 2.6554 3.52194 4.42695 5.37398 6.36714 7.41114 8.51149 9.6746 10.9081 12.221 13.6242 15.1312 16.7585 18.527 20.4635 22.6033 24.9943 27.7032 30.8279 34.5194 39.0301 44.8303 52.9662 60 2.77569 3.59315 4.44689 5.34027 6.27717 7.26204 8.30005 9.39728 10.5609 11.7994 13.1232 14.5448 16.0799 17.7482 19.575 21.5937 23.8492 26.4047 29.3523 32.8348 37.0899 42.5616 50.2366 60 2.89641 3.45694 4.04235 4.65495 5.29739 5.97271 6.68448 7.43685 8.23473 9.084 9.99171 10.9665 12.0192 13.1631 14.4158 15.7999 17.3466 19.0989 21.1201 23.508 26.4258 30.1777 35.4405 44.3289 60 3.01757 3.76382 4.64546 5.72273 7.10797 9.05105 12.3328 28.2029 36.6651 3.13915 3.91311 4.82748 5.94475 7.38143 9.39665 12.8002 29.2596 38.036 3.26117 3.99491 4.86176 5.92097 7.28299 9.19347 12.4202 28.0242 36.3445 3.38363 4.002 4.64781 5.32361 6.03232 6.77732 7.56253 8.39252 9.27272 10.2096 11.211 12.2864 13.4476 14.7096 16.0915 17.6184 19.3246 21.2577 23.4875 26.1217 29.3405 33.4795 39.2853 49.0908 60 3.50655 4.35538 5.35821 6.58357 8.15924 10.3694 14.1023 32.1539 41.7794 3.6299 4.27122 4.94101 5.6419 6.37693 7.14959 7.96394 8.82475 9.73764 10.7093 11.7479 12.8632 14.0675 15.3763 16.8095 18.3932 20.1628 22.1676 24.4802 27.2122 30.5506 34.8432 40.8645 51.0341 60 3.7537 4.36169 4.99667 5.66114 6.35797 7.09048 7.86251 8.67859 9.54403 10.4652 11.4498 12.5071 13.6489 14.8897 16.2484 17.7498 19.4274 21.3281 23.5204 26.1105 29.2753 33.3449 39.0533 48.6945 60 3.87795 4.64169 5.54399 6.64652 8.06423 10.0528 13.4115 29.6536 38.3141 4.00265 4.66994 5.45827 6.42155 7.6602 9.39764 12.3321 26.5227 34.0894 4.12783 4.95348 5.92892 7.1208 8.65343 10.8032 14.4341 31.9927 41.3552 4.25346 4.95683 5.69141 6.46011 7.26625 8.11366 9.0068 9.95088 10.9521 12.0178 13.1568 14.38 15.7008 17.1363 18.7081 20.445 22.3858 24.5846 27.1208 30.1172 33.7785 38.4865 45.0903 56.2438 60 4.37955 5.05341 5.84953 6.82229 8.07316 9.82774 12.7911 27.1217 34.763 4.50612 5.31069 6.26122 7.42268 8.91617 11.0111 14.5492 31.6595 40.783 4.63316 5.26602 5.92697 6.61861 7.34394 8.1064 8.91 9.75945 10.6603 11.6191 12.644 13.7446 14.933 16.2246 17.6388 19.2016 20.9478 22.9262 25.2082 27.9042 31.1985 35.4345 41.3763 51.4117 60 4.76068 5.4592 6.28445 7.29281 8.58945 10.4082 13.48 28.335 36.256 4.88868 5.59639 6.43249 7.45412 8.76781 10.6105 13.7227 28.7731 36.7983 5.01716 5.72872 6.56937 7.59655 8.91739 10.7701 13.8993 29.0315 37.1003 5.14613 6.02813 7.07014 8.34337 9.98059 12.2771 16.1558 34.9127 44.9142 5.27559 6.08149 7.03359 8.19696 9.69292 11.7913 15.3353 32.4738 41.6124 5.40555 5.95848 6.53594 7.14023 7.77394 8.4401 9.14221 9.88437 10.6714 11.5092 12.4046 13.3661 14.4045 15.5329 16.7686 18.134 19.6596 21.3881 23.3819 25.7374 28.6156 32.3166 37.5079 46.2758 60 5.536 6.24167 7.07535 8.09403 9.40393 11.2413 14.3445 29.3515 37.3534 5.66696 6.39439 7.25379 8.30389 9.6542 11.5483 14.7472 30.217 38.4658 5.79842 6.48258 7.1971 7.9448 8.72891 9.55318 10.4219 11.3402 12.3141 13.3506 14.4585 15.6483 16.9331 18.3294 19.8583 21.5477 23.4354 25.5742 28.0412 30.9557 34.517 39.0963 45.5198 56.3686 60 5.9304 6.80922 7.84749 9.11614 10.7475 13.0357 16.9005 35.5899 45.5555 6.06289 6.62126 7.20442 7.81467 8.45463 9.12736 9.83639 10.5859 11.3807 12.2267 13.1309 14.102 15.1506 16.2901 17.5379 18.9168 20.4575 22.203 24.2165 26.5952 29.5018 33.2393 38.4818 47.3361 60 6.19589 6.93993 7.81894 8.89301 10.2741 12.2114 15.4834 31.3063 39.7433 6.32942 7.14494 8.10841 9.28568 10.7995 12.9229 16.5092 33.8524 43.1001 6.46348 7.13016 7.82644 8.55505 9.31914 10.1224 10.9689 11.8638 12.8128 13.8229 14.9025 16.0619 17.3139 18.6745 20.1643 21.8106 23.6502 25.7343 28.1383 30.9784 34.4488 38.9112 45.1706 55.7424 60 6.59807 7.17688 7.78138 8.41395 9.07733 9.77468 10.5097 11.2866 12.1105 12.9874 13.9247 14.9313 16.0183 17.1995 18.493 19.9224 21.5194 23.3288 25.416 27.8817 30.8947 34.7689 40.2033 49.3817 60 6.73319 7.31961 7.93206 8.57296 9.24507 9.95159 10.6962 11.4834 12.3181 13.2066 14.1562 15.1761 16.2773 17.4741 18.7846 20.2327 21.8508 23.684 25.7986 28.2968 31.3494 35.2746 40.7805 50.0795 60 6.86885 7.45847 8.07425 8.71863 9.39439 10.1048 10.8534 11.6449 12.4841 13.3775 14.3323 15.3576 16.4649 17.6682 18.9858 20.4418 22.0687 23.9119 26.038 28.5498 31.6189 35.5655 41.1013 50.4509 60 7.00506 7.7251 8.57577 9.61521 10.9518 12.8266 15.9931 31.3058 39.4708 7.14182 7.8646 8.71851 9.7619 11.1036 12.9855 16.164 31.535 39.731 7.27912 7.98449 8.81781 9.83606 11.1454 12.982 16.0839 31.0844 39.0829 7.41699 8.11515 8.93998 9.94783 11.2438 13.0617 16.1319 30.9793 38.8962 7.55541 8.16094 8.87632 9.75044 10.8745 12.4511 15.114 27.9914 34.8578 7.6944 8.42525 9.18853 9.98726 10.8249 11.7054 12.6334 13.6144 14.6547 15.762 16.9455 18.2165 19.589 21.0805 22.7138 24.5185 26.5351 28.8198 31.4551 34.5686 38.3729 43.2648 50.1266 60 7.83396 8.50175 9.19917 9.92898 10.6943 11.4989 12.3468 13.2432 14.1937 15.2055 16.2869 17.4482 18.7023 20.0651 21.5574 23.2065 25.049 27.1366 29.5446 32.3894 35.8655 40.3353 46.6051 57.1943 60 7.9741 8.62873 9.40213 10.3471 11.5623 13.2668 16.1456 30.0673 37.4906 8.11481 8.69954 9.31023 9.94927 10.6194 11.3239 12.0664 12.8513 13.6836 14.5695 15.5164 16.5333 17.6314 18.8247 20.1314 21.5754 23.1888 25.0167 27.1252 29.6162 32.6599 36.5738 42.0638 51.336 60 8.25612 9.01652 9.91488 11.0126 12.4241 14.404 17.748 33.9191 42.5418 8.39801 9.00078 9.6303 10.2891 10.9799 11.7061 12.4715 13.2806 14.1386 15.0518 16.0279 17.0762 18.2081 19.4383 20.7853 22.2738 23.9369 25.8213 27.9948 30.5626 33.7002 37.7348 43.3941 52.9524 60 8.5405 9.41362 10.4451 11.7056 13.3263 15.5997 19.4394 38.0076 47.9085 8.68359 9.4812 10.4235 11.5749 13.0555 15.1323 18.6399 35.6022 44.6469 8.82728 9.5555 10.316 11.1119 11.9465 12.8239 13.7486 14.726 15.7626 16.8659 18.0452 19.3116 20.6791 22.1653 23.7927 25.5909 27.6002 29.8767 32.5026 35.6048 39.3955 44.2698 51.1069 60 8.97159 9.69377 10.547 11.5895 12.9301 14.8105 17.9863 33.3445 41.5338 9.1165 9.73303 10.3769 11.0507 11.7573 12.5001 13.283 14.1105 14.9881 15.9222 16.9205 17.9927 19.1505 20.4087 21.7865 23.309 25.0101 26.9374 29.1605 31.7869 34.9962 39.1229 44.9113 54.6877 60 9.26204 9.9378 10.6436 11.3821 12.1566 12.9707 13.8288 14.7358 15.6977 16.7216 17.8159 18.9911 20.2601 21.6392 23.1494 24.8181 26.6827 28.7952 31.2319 34.1107 37.6282 42.1514 48.4961 59.2117 60 9.4082 10.2841 11.319 12.5834 14.2093 16.49 20.342 38.9696 48.9022 9.555 10.1516 10.7748 11.4268 12.1107 12.8295 13.5871 14.3879 15.2372 16.1412 17.1074 18.145 19.2655 20.4831 21.8165 23.2898 24.9361 26.8013 28.9527 31.4944 34.6002 38.5938 44.1957 53.6568 60 9.70243 10.4774 11.393 12.5117 13.9502 15.9681 19.3761 35.8569 44.6447 9.85051 10.5726 11.4258 12.4682 13.8087 15.689 18.8647 34.2219 42.4106 9.99924 10.5982 11.2236 11.8782 12.5646 13.2862 14.0467 14.8506 15.7031 16.6105 17.5804 18.6219 19.7467 20.9689 22.3074 23.7863 25.4388 27.3111 29.4707 32.0222 35.1397 39.1486 44.7717 54.2688 60 10.1486 10.7331 11.3435 11.9823 12.6522 13.3563 14.0985 14.883 15.715 16.6006 17.5471 18.5635 19.6611 20.8539 22.1601 23.6034 25.2161 27.0433 29.1509 31.6408 34.6832 38.5954 44.0831 53.3513 60 10.2986 11.0514 11.9407 13.0273 14.4246 16.3846 19.6948 35.7028 44.2386 10.4494 11.2403 12.1748 13.3167 14.785 16.8445 20.323 37.1444 46.1139 10.6007 11.1792 11.7834 12.4157 13.0787 13.7757 14.5103 15.2868 16.1103 16.9868 17.9237 18.9297 20.0161 21.1968 22.4896 23.9182 25.5145 27.323 29.409 31.8736 34.8849 38.7572 44.1888 53.3625 60 10.7528 11.2545 11.7786 12.3269 12.902 13.5065 14.1436 14.8171 15.5313 16.2915 17.1041 17.9767 18.9189 19.9429 21.0642 22.3032 23.6877 25.2562 27.0655 29.203 31.8148 35.1733 39.8842 47.8407 60 10.9055 11.6908 12.6186 13.7522 15.21 17.2547 20.7082 37.4089 46.3139 11.0589 11.727 12.5163 13.4807 14.7209 16.4604 19.3984 33.6062 41.182 11.2131 11.7555 12.322 12.9149 13.5366 14.1901 14.8789 15.607 16.3791 17.201 18.0794 19.0228 20.0414 21.1485 22.3607 23.7002 25.1969 26.8927 28.8487 31.1595 33.9831 37.614 42.7069 51.3086 60 11.3679 12.1393 13.0507 14.1643 15.5962 17.6049 20.9973 37.4026 46.1503 11.5234 12.1535 12.8116 13.5002 14.2223 14.9815 15.7816 16.6273 17.5242 18.4788 19.4992 20.595 21.7782 23.0641 24.4722 26.0282 27.7667 29.7365 32.0085 34.6927 37.9726 42.1901 48.1059 58.0974 60 11.6797 12.4032 13.1588 13.9494 14.7787 15.6503 16.569 17.5401 18.57 19.6661 20.8377 22.0959 23.4546 24.9311 26.5479 28.3345 30.3308 32.5925 35.2014 38.2835 42.0495 46.8922 53.685 60 11.8366 12.4975 13.1878 13.9101 14.6676 15.4639 16.3031 17.1902 18.131 19.1324 20.2027 21.3521 22.5932 23.942 25.419 27.0511 28.8747 30.9409 33.3241 36.1396 39.58 44.0038 50.2092 60 11.9943 12.5927 13.2177 13.8717 14.5576 15.2785 16.0384 16.8416 17.6935 18.6001 19.5692 20.6099 21.7337 22.9549 24.2922 25.77 27.4211 29.2919 31.4497 33.999 37.114 41.1195 46.738 56.2272 60 12.1527 12.8939 13.7696 14.8395 16.2153 18.1451 21.4045 37.1665 45.5711 12.3119 13.0377 13.7957 14.589 15.4208 16.2953 17.2169 18.1911 19.2243 20.3239 21.4993 22.7615 24.1245 25.6058 27.2278 29.0201 31.0228 33.2917 35.9089 39.0009 42.779 47.6372 54.4517 60 12.4718 13.114 13.7847 14.4865 15.2224 15.9961 16.8115 17.6735 18.5875 19.5605 20.6004 21.7171 22.923 24.2336 25.6686 27.2544 29.0262 31.0337 33.3493 36.0849 39.4276 43.7258 49.755 59.9378 60 12.6325 13.4557 14.4281 15.6164 17.1443 19.2876 22.9074 40.4126 49.7466 12.794 13.3923 14.0173 14.6712 15.357 16.078 16.8378 17.641 18.4927 19.3993 20.3683 21.409 22.5327 23.7539 25.0911 26.5687 28.2198 30.0904 32.2481 34.7972 37.912 41.9172 47.5354 57.024 60 12.9562 13.5799 14.2313 14.913 15.6279 16.3793 17.1714 18.0086 18.8964 19.8414 20.8515 21.9362 23.1076 24.3805 25.7744 27.3147 29.0357 30.9856 33.2347 35.8919 39.1386 43.3136 49.1698 59.0606 60 13.1192 13.7746 14.4591 15.1754 15.9266 16.7163 17.5485 18.4283 19.3613 20.3543 21.4157 22.5555 23.7864 25.124 26.5887 28.2073 30.0157 32.0647 34.4281 37.2203 40.6321 45.0192 51.173 60 13.2829 13.9336 14.6133 15.3244 16.0702 16.8542 17.6805 18.5539 19.4802 20.4661 21.5199 22.6515 23.8736 25.2016 26.6558 28.2627 30.0582 32.0924 34.4389 37.211 40.5982 44.9539 51.0634 60 13.4475 14.0011 14.5792 15.1843 15.8187 16.4857 17.1887 17.9317 18.7197 19.5585 20.4549 21.4177 22.4573 23.5871 24.8242 26.1912 27.7187 29.4493 31.4455 33.8038 36.6855 40.391 45.5886 54.367 60 13.6129 14.2521 14.9197 15.6183 16.3509 17.121 17.9327 18.7907 19.7006 20.669 21.7042 22.8158 24.0162 25.3208 26.7493 28.3278 30.0915 32.0898 34.3947 37.1179 40.4452 44.7238 50.7254 60 13.779 14.5933 15.5554 16.7309 18.2424 20.3627 23.9436 41.2608 50.4946 13.946 14.5602 15.2016 15.8728 16.5767 17.3166 18.0965 18.9208 19.795 20.7255 21.7201 22.7881 23.9414 25.1948 26.5673 28.0839 29.7784 31.6984 33.9129 36.5293 39.7262 43.837 49.6032 59.3419 60 14.1138 14.7959 15.5083 16.2537 17.0354 17.8572 18.7233 19.6388 20.6097 21.6431 22.7476 23.9338 25.2147 26.6067 28.1309 29.8152 31.6972 33.8294 36.2889 39.1946 42.745 47.3104 53.7143 60 14.2825 14.9572 15.6619 16.3994 17.1727 17.9856 18.8424 19.7481 20.7086 21.7309 22.8236 23.997 25.2641 26.6412 28.149 29.8153 31.677 33.7864 36.2194 39.0939 42.6062 47.1226 53.4578 60 14.452 15.0628 15.7008 16.3683 17.0684 17.8043 18.58 19.3999 20.2693 21.1948 22.184 23.2463 24.3934 25.64 27.005 28.5134 30.1988 32.1083 34.3109 36.9131 40.0927 44.1813 49.9163 59.6024 60 14.6223 15.2657 15.9377 16.6408 17.3782 18.1533 18.9703 19.8339 20.7497 21.7245 22.7664 23.8853 25.0935 26.4065 27.8443 29.4331 31.2083 33.2196 35.5396 38.2804 41.6295 45.936 51.9766 60 14.7935 15.3878 16.0084 16.6579 17.3389 18.0549 18.8095 19.6071 20.453 21.3533 22.3157 23.3491 24.4651 25.6778 27.0058 28.4733 30.1129 31.9707 34.1135 36.645 39.7383 43.7159 49.2953 58.7185 60 14.9656 15.7637 16.5972 17.4694 18.3841 19.3456 20.359 21.4303 22.5663 23.7755 25.0679 26.4558 27.9545 29.5833 31.3668 33.3376 35.5397 38.0346 40.9124 44.3123 48.4666 53.8085 60 15.1386 15.7681 16.4255 17.1135 17.8349 18.5933 19.3927 20.2376 21.1337 22.0874 23.1068 24.2016 25.3837 26.6684 28.0752 29.6297 31.3666 33.3345 35.6044 38.2861 41.5628 45.7764 51.6867 60 15.3124 15.9827 16.6827 17.4153 18.1835 18.9911 19.8423 20.742 21.6961 22.7117 23.7972 24.9629 26.2216 27.5896 29.0876 30.7428 32.5923 34.6878 37.1048 39.9603 43.4495 47.9362 54.2296 60 15.4871 16.2243 17.0952 18.1593 19.5277 21.4471 24.6888 40.3656 48.7247 15.6627 16.3328 17.0326 17.765 18.533 19.3403 20.1912 21.0906 22.0445 23.0597 24.1449 25.3102 26.5686 27.9361 29.4336 31.0884 32.9373 35.0321 37.4484 40.303 43.7911 48.2764 54.5678 60 15.8393 16.6157 17.533 18.6539 20.0952 22.1169 25.5314 42.0436 50.8482 16.0167 16.7339 17.5811 18.6164 19.9476 21.8149 24.9687 40.22 48.3522 16.1951 17.1582 18.2961 19.6865 21.4743 23.9821 28.2177 48.7002 59.6219 16.3744 17.1341 18.0316 19.1283 20.5385 22.5166 25.8574 42.0132 50.6278 16.5547 17.3637 18.3194 19.4871 20.9887 23.095 26.6523 43.8555 53.0284 16.736 17.5447 18.5001 19.6674 21.1686 23.2742 26.8305 44.0282 53.1984 16.9182 17.6377 18.4877 19.5264 20.862 22.7354 25.8995 41.2008 49.3597 17.1014 17.8302 18.6911 19.7431 21.0959 22.9934 26.1982 41.6961 49.9599 17.2856 18.1456 19.1615 20.403 21.9993 24.2384 28.0202 46.3086 56.0603 17.4708 18.2634 19.1998 20.344 21.8153 23.8791 27.3647 44.2208 53.2087 17.657 18.3663 19.2044 20.2284 21.5451 23.3921 26.5115 41.5968 49.6405 17.8442 18.4404 19.0631 19.7147 20.398 21.1163 21.8733 22.6736 23.5222 24.4255 25.391 26.4278 27.5475 28.7642 30.0966 31.5688 33.2138 35.0776 37.2275 39.7673 42.8707 46.8614 52.459 60 18.0325 18.6364 19.267 19.927 20.6191 21.3466 22.1134 22.9239 23.7835 24.6984 25.6763 26.7265 27.8605 29.0928 30.4423 31.9335 33.5997 35.4874 37.6649 40.2374 43.3807 47.4227 53.0923 60 18.2218 19.0319 19.9889 21.1583 22.6619 24.7711 28.3334 45.5603 54.7459 18.4122 19.1248 19.869 20.6478 21.4645 22.323 23.2279 24.1843 25.1987 26.2783 27.4323 28.6715 30.0097 31.464 33.0564 34.8161 36.7823 39.0099 41.5794 44.6151 48.3244 53.0941 59.7845 60 18.6037 19.2605 19.9464 20.6642 21.4169 22.2082 23.0422 23.9237 24.8586 25.8537 26.9173 28.0595 29.2929 30.6332 32.101 33.7228 35.535 37.5882 39.9565 42.7544 46.1732 50.5693 56.7358 60 18.7962 19.384 19.9979 20.6402 21.3139 22.0221 22.7684 23.5574 24.394 25.2846 26.2364 27.2586 28.3624 29.562 30.8756 32.327 33.9488 35.7863 37.9058 40.4098 43.4694 47.4037 52.9224 60 18.9898 19.7735 20.6993 21.8306 23.2852 25.3257 28.7718 45.4372 54.3234 19.1846 20.1733 21.3413 22.7685 24.6038 27.1781 31.5259 52.5515 60 19.3805 20.0517 20.7527 21.4863 22.2556 23.0643 23.9166 24.8175 25.773 26.79 27.877 29.0443 30.3048 31.6747 33.1747 34.8322 36.6843 38.7826 41.203 44.0625 47.5564 52.0493 58.3514 60 19.5775 20.2268 20.905 21.6146 22.3589 23.1412 23.9657 24.8373 25.7616 26.7455 27.797 28.9263 30.1457 31.4709 32.9221 34.5256 36.3172 38.3472 40.6887 43.4549 46.8351 51.1815 57.2781 60 19.7756 20.5171 21.3932 22.4636 23.8401 25.7709 29.0318 44.8013 53.2099 19.9749 20.7942 21.6498 22.5451 23.4841 24.4711 25.5114 26.611 27.7771 29.0183 30.345 31.7697 33.3082 34.9802 36.811 38.834 41.0944 43.6555 46.6096 50.0996 54.3641 59.8477 60 20.1754 20.7899 21.4316 22.1031 22.8073 23.5476 24.3278 25.1526 26.0272 26.9581 27.9531 29.0217 30.1756 31.4296 32.8027 34.32 36.0154 37.9362 40.1519 42.7694 45.9678 50.0806 55.8496 60 20.3771 20.9994 21.6493 22.3294 23.0426 23.7924 24.5826 25.4178 26.3036 27.2465 28.2542 29.3364 30.505 31.775 33.1657 34.7024 36.4194 38.3648 40.6088 43.2598 46.4991 50.6644 56.507 60 20.58 21.331 22.2182 23.3023 24.6964 26.6518 29.9544 45.9254 54.4415 20.7841 21.3981 22.0394 22.7104 23.4142 24.154 24.9337 25.7578 26.6318 27.5622 28.5565 29.6243 30.7774 32.0305 33.4027 34.919 36.6132 38.5327 40.7468 43.3626 46.5588 50.6688 56.4338 60 20.9894 21.7304 22.6059 23.6756 25.0511 26.9806 30.2393 45.998 54.4008 21.196 21.9422 22.8237 23.9009 25.286 27.2289 30.5102 46.3787 54.8401 21.4039 22.0654 22.847 23.8019 25.0299 26.7524 29.6616 43.7301 51.2317 21.613 22.2313 22.877 23.5528 24.2614 25.0063 25.7915 26.6214 27.5015 28.4383 29.4395 30.5148 31.6759 32.9378 34.3195 35.8463 37.5523 39.4852 41.7147 44.3487 47.5672 51.7058 57.5109 60 21.8234 22.3716 22.9441 23.5432 24.1714 24.8319 25.5279 26.2637 27.044 27.8745 28.7622 29.7155 30.7449 31.8636 33.0887 34.4423 35.9548 37.6684 39.6451 41.9803 44.8337 48.5028 53.6495 60 22.0352 22.8177 23.7421 24.8717 26.3242 28.3616 31.8027 48.4435 57.3167 22.2482 22.8966 23.5738 24.2824 25.0255 25.8067 26.6301 27.5004 28.4233 29.4057 30.4557 31.5833 32.8009 34.1242 35.5732 37.1743 38.9633 40.9903 43.3284 46.0905 49.4657 53.8057 59.8934 60 22.4626 23.436 24.5858 25.9909 27.7976 30.3319 34.6122 55.3111 60 22.6784 23.4116 24.2778 25.3363 26.6973 28.6064 31.8307 47.4233 55.7375 22.8955 23.7021 24.5444 25.4258 26.3502 27.3218 28.346 29.4285 30.5765 31.7985 33.1045 34.5071 36.0217 37.6676 39.47 41.4616 43.6869 46.2082 49.1164 52.5522 56.7504 60 23.1141 23.7216 24.3562 25.0201 25.7165 26.4484 27.2199 28.0354 28.9002 29.8207 30.8045 31.8611 33.0021 34.242 35.5997 37.1 38.7763 40.6756 42.8664 45.4546 48.6171 52.6837 58.3879 60 23.334 24.1284 25.0669 26.2136 27.6881 29.7564 33.2497 50.1428 59.1505 23.5554 24.316 25.2145 26.3123 27.7241 29.7043 33.0488 49.2225 57.8465 23.7783 24.6633 25.7089 26.9865 28.6294 30.9338 34.8258 53.6472 60 24.0026 24.6608 25.3483 26.0676 26.822 27.615 28.4509 29.3344 30.2713 31.2686 32.3345 33.4792 34.7153 36.0586 37.5296 39.155 40.9711 43.0288 45.4023 48.2064 51.6327 56.0385 60 24.2284 24.8586 25.5167 26.2055 26.9277 27.687 28.4872 29.3331 30.2301 31.1849 32.2054 33.3014 34.4848 35.771 37.1793 38.7355 40.4743 42.4444 44.7168 47.4014 50.6818 54.9 60 24.4557 25.2022 26.0841 27.1616 28.5472 30.4908 33.7735 49.6479 58.1124 24.6846 25.4179 26.1838 26.9853 27.8258 28.7094 29.6406 30.6249 31.6688 32.7799 33.9675 35.2429 36.6201 38.1167 39.7556 41.5665 43.59 45.8826 48.527 51.6512 55.4686 60 24.915 25.7289 26.6906 27.8656 29.3765 31.4959 35.0754 52.3855 60 25.1469 25.9312 26.8578 27.99 29.4459 31.4881 34.9372 51.6166 60 25.3805 25.999 26.645 27.321 28.0299 28.7751 29.5605 30.3907 31.2712 32.2083 33.21 34.2856 35.4472 36.7095 38.0918 39.6192 41.3258 43.2595 45.4898 48.1248 51.3445 55.4846 60 25.6157 26.3707 27.2628 28.3528 29.7545 31.7205 35.0411 51.0989 59.6613 25.8525 26.5831 27.4462 28.5008 29.857 31.7592 34.972 50.5087 58.7931 26.091 26.7654 27.4699 28.207 28.98 29.7926 30.649 31.5543 32.5144 33.5363 34.6285 35.8015 37.0681 38.4446 39.9518 41.6174 43.4784 45.5869 48.0189 50.8922 54.4031 58.9176 60 26.3311 26.981 27.6598 28.3701 29.1149 29.8979 30.7231 31.5955 32.5206 33.5052 34.5577 35.6879 36.9083 38.2347 39.687 41.2919 43.0851 45.1168 47.4602 50.2288 53.6118 57.9619 60 26.573 27.1987 27.8521 28.5359 29.253 30.0069 30.8013 31.6412 32.5318 33.4797 34.493 35.5811 36.756 38.0329 39.4312 40.9762 42.7026 44.6586 46.9147 49.5801 52.837 57.025 60 26.8166 27.422 28.0542 28.7158 29.4097 30.139 30.9077 31.7203 32.582 33.4992 34.4795 35.5323 36.6691 37.9046 39.2575 40.7524 42.4227 44.3152 46.4981 49.077 52.2282 56.2803 60 27.062 27.8685 28.8214 29.9858 31.4829 33.583 37.1299 54.2824 60 27.3091 28.1281 29.0955 30.2777 31.7978 33.9301 37.5313 54.9466 60 27.5581 28.2264 28.9244 29.6548 30.4208 31.226 32.0747 32.9717 33.9231 34.9357 36.0179 37.1802 38.4353 39.7992 41.2928 42.9432 44.7872 46.8765 49.2865 52.1336 55.6125 60 27.8089 28.4619 29.2334 30.1761 31.3883 33.0887 35.9605 49.8481 57.2532 28.0616 28.8281 29.7337 30.8403 32.2632 34.259 37.63 53.9314 60 28.3161 28.9947 29.7034 30.445 31.2227 32.0402 32.9019 33.8127 34.7786 35.8067 36.9056 38.0857 39.36 40.7448 42.2613 43.9369 45.8092 47.9305 50.3774 53.2681 56.8003 60 28.5726 29.3527 30.2743 31.4004 32.8485 34.8796 38.3101 54.8997 60 28.831 29.3722 29.9373 30.5287 31.1489 31.8008 32.4879 33.2142 33.9845 34.8043 35.6806 36.6216 37.6378 38.7421 39.9514 41.2876 42.7807 44.4723 46.4235 48.7287 51.5454 55.1674 60 29.0914 29.7881 30.6112 31.617 32.9102 34.7242 37.788 52.6041 60 29.3539 29.989 30.6524 31.3466 32.0746 32.8398 33.6463 34.4989 35.403 36.3654 37.394 38.4986 39.6914 40.9876 42.4071 43.9756 45.7281 47.7138 50.0041 52.71 56.0163 60 29.6183 30.2647 30.9398 31.6463 32.3871 33.1659 33.9867 34.8543 35.7744 36.7538 37.8005 38.9247 40.1386 41.4577 42.9023 44.4985 46.282 48.3028 50.6336 53.3873 56.752 60 29.8849 30.4622 31.0651 31.696 32.3577 33.0532 33.7862 34.5611 35.3829 36.2575 37.1924 38.1963 39.2805 40.4586 41.7487 43.1743 44.7672 46.5719 48.6536 51.1129 54.1179 57.982 60 30.1535 30.6835 31.2371 31.8163 32.4237 33.0623 33.7353 34.4466 35.2011 36.0041 36.8623 37.784 38.7793 39.861 41.0454 42.3542 43.8165 45.4734 47.3845 49.6423 52.4012 55.9487 60 30.4243 31.0639 31.8196 32.7429 33.9302 35.5956 38.4084 52.0106 59.2636 30.6973 31.3394 32.0101 32.7119 33.4478 34.2215 35.0369 35.8988 36.8129 37.7858 38.8257 39.9424 41.1483 42.4588 43.8938 45.4796 47.2514 49.2588 51.5743 54.3099 57.6525 60 30.9724 31.7474 32.6629 33.7816 35.2202 37.238 40.6459 57.1264 60 31.2499 31.8376 32.4515 33.0939 33.7676 34.4757 35.2221 36.011 36.8477 37.7383 38.6901 39.7123 40.8161 42.0157 43.3293 44.7807 46.4025 48.24 50.3595 52.8635 55.9232 59.8575 60 31.5295 32.2389 33.0769 34.1009 35.4177 37.2647 40.3841 55.4694 60 31.8116 32.5967 33.5244 34.6578 36.1153 38.1597 41.6126 58.3106 60 32.0959 32.7466 33.4261 34.1371 34.8828 35.6666 36.4928 37.3661 38.2922 39.278 40.3316 41.463 42.6848 44.0126 45.4666 47.0732 48.8684 50.9023 53.2484 56.0201 59.4068 60 32.3827 33.043 33.8231 34.7763 36.002 37.7213 40.6251 54.6676 60 32.6719 33.2191 33.7905 34.3885 35.0156 35.6748 36.3696 37.104 37.8828 38.7118 39.5978 40.5494 41.5769 42.6935 43.9163 45.2674 46.7771 48.4876 50.4605 52.7914 55.6395 59.3019 60 32.9636 33.5515 34.1654 34.8078 35.4815 36.1898 36.9362 37.7252 38.5619 39.4526 40.4045 41.4268 42.5307 43.7303 45.044 46.4956 48.1175 49.9551 52.0748 54.579 57.6389 60 33.2579 33.8974 34.5653 35.2641 35.9971 36.7675 37.5796 38.4379 39.3482 40.3171 41.3526 42.4648 43.6657 44.9708 46.3999 47.979 49.7435 51.7426 54.0486 56.7728 60 33.5547 34.2641 35.1022 36.1263 37.4431 39.2902 42.4099 57.4964 60 33.8541 34.4838 35.1414 35.8296 36.5513 37.31 38.1096 38.9548 39.8511 40.8051 41.8248 42.9199 44.1024 45.3875 46.7948 48.3497 50.0872 52.0557 54.3263 57.0088 60 34.1562 34.8859 35.648 36.4455 37.2818 38.1609 39.0875 40.0669 41.1056 42.2112 43.3929 44.6619 46.0322 47.5214 49.1521 50.954 52.9674 55.2486 57.8798 60 34.461 35.187 35.9452 36.7387 37.5708 38.4455 39.3674 40.3419 41.3753 42.4753 43.651 44.9136 46.277 47.7587 49.3812 51.174 53.1772 55.4468 58.0648 60 34.7685 35.4252 36.111 36.8287 37.5813 38.3725 39.2063 40.0877 41.0225 42.0174 43.0808 44.2228 45.456 46.7962 48.2637 49.8852 51.6971 53.75 56.1179 58.9154 60 35.0789 35.8506 36.7624 37.8765 39.309 41.3185 44.7123 60 35.3921 36.0589 36.7553 37.484 38.2482 39.0515 39.8982 40.7932 41.7423 42.7526 43.8324 44.992 46.2441 47.6049 49.095 50.7416 52.5814 54.6658 57.0702 59.9107 60 35.7082 36.4681 37.3659 38.4629 39.8736 41.8522 45.1941 60 36.0273 36.7341 37.4723 38.2448 39.0549 39.9064 40.804 41.7527 42.7588 43.8297 44.9743 46.2035 47.5308 48.9733 50.5529 52.2983 54.2485 56.4581 59.0068 60 36.3494 37.23 38.2704 39.5417 41.1763 43.4693 47.3419 60 36.6746 37.5508 38.5859 39.8507 41.4772 43.7585 47.6116 60 37.003 37.7955 38.7317 39.8758 41.3468 43.4103 46.8953 60 37.3345 38.1392 39.0899 40.2515 41.7453 43.8405 47.3792 60 37.6694 38.2253 38.806 39.4136 40.0508 40.7206 41.4265 42.1728 42.9642 43.8065 44.7068 45.6737 46.7177 47.8524 49.0948 50.4677 52.0017 53.7397 55.7444 58.1129 60 38.0075 38.6191 39.2578 39.9262 40.6272 41.364 42.1406 42.9616 43.8321 44.7587 45.7491 46.8128 47.9613 49.2094 50.5762 52.0864 53.7739 55.6859 57.8912 60 38.349 39.202 40.2098 41.4412 43.0246 45.2456 48.9967 60 38.6941 39.44 40.219 41.0342 41.8891 42.7878 43.735 44.7362 45.7979 46.9281 48.136 49.4332 50.834 52.3563 54.0232 55.8652 57.9233 60 39.0426 39.7136 40.5062 41.4748 42.7203 44.4672 47.4178 60 39.3948 40.0986 40.8337 41.6028 42.4095 43.2574 44.1511 45.0958 46.0976 47.164 48.3037 49.5277 50.8494 52.2857 53.8586 55.5966 57.5385 59.7387 60 39.7507 40.4887 41.3607 42.4262 43.7963 45.7181 48.9639 60 40.1103 41.0105 42.074 43.3735 45.0445 47.3883 51.347 60 40.4737 41.0967 41.7472 42.428 43.142 43.8925 44.6835 45.5196 46.4063 47.3501 48.3588 49.4421 50.6119 51.8832 53.2753 54.8136 56.5323 58.4797 60 40.8411 41.5925 42.3772 43.1983 44.0595 44.9647 45.9187 46.9272 47.9967 49.1351 50.3518 51.6585 53.0695 54.6029 56.2819 58.1373 60 41.2125 42.0619 43.0654 44.2915 45.8682 48.0797 51.8149 60 41.588 42.3398 43.2279 44.3132 45.7086 47.666 50.972 60 41.9677 42.8745 43.9457 45.2547 46.9379 49.2988 53.2863 60 42.3518 43.0542 43.8841 44.8981 46.202 48.031 51.12 60 42.7401 43.4496 44.2879 45.3121 46.6291 48.4765 51.5966 60 43.133 43.